ZCORN
8*0.000000 16*1.000000 16*2.000000 16*3.000000 16*4.000000 16*5.000000 8*6.000000 /
